REMARK  Name = 10238
REMARK  11 active torsions:
REMARK  status: ('A' for Active; 'I' for Inactive)
REMARK    1  A    between atoms: S_1  and  O_7
REMARK    2  A    between atoms: S_1  and  O_10
REMARK    3  A    between atoms: P_2  and  O_6
REMARK    4  A    between atoms: P_2  and  O_7
REMARK    5  A    between atoms: P_2  and  O_8
REMARK    6  A    between atoms: O_4  and  C_18
REMARK    7  A    between atoms: O_5  and  C_19
REMARK    8  A    between atoms: O_6  and  C_22
REMARK    9  A    between atoms: N_13  and  C_20
REMARK   10  A    between atoms: N_17  and  C_26
REMARK   11  A    between atoms: C_21  and  C_22
REMARK                            x       y       z     vdW  Elec       q    Type
REMARK                         _______ _______ _______ _____ _____    ______ ____
ROOT
ATOM      1  O   UNL     1      -0.011   1.561  -0.794  0.00  0.00    +0.000 OA
ATOM      2  C   UNL     1      -2.036   2.717  -0.228  0.00  0.00    +0.000 C 
ATOM      3  C   UNL     1      -0.988   2.925   0.849  0.00  0.00    +0.000 C 
ATOM      4  C   UNL     1      -1.423   1.612  -1.090  0.00  0.00    +0.000 C 
ATOM      5  C   UNL     1       0.303   2.639   0.102  0.00  0.00    +0.000 C 
ENDROOT
BRANCH   4   6
ATOM      6  N   UNL     1      -2.017   0.293  -0.863  0.00  0.00    +0.000 N 
ATOM      7  N   UNL     1      -3.367  -1.462  -1.137  0.00  0.00    +0.000 NA
ATOM      8  N   UNL     1      -0.686  -0.496   1.010  0.00  0.00    +0.000 NA
ATOM      9  N   UNL     1      -1.379  -2.728   1.714  0.00  0.00    +0.000 NA
ATOM     10  C   UNL     1      -1.654  -0.618   0.090  0.00  0.00    +0.000 A 
ATOM     11  C   UNL     1      -3.050  -0.261  -1.573  0.00  0.00    +0.000 A 
ATOM     12  C   UNL     1      -2.502  -1.698  -0.097  0.00  0.00    +0.000 A 
ATOM     13  C   UNL     1      -2.339  -2.781   0.759  0.00  0.00    +0.000 A 
ATOM     14  C   UNL     1      -0.624  -1.605   1.780  0.00  0.00    +0.000 A 
BRANCH  13  15
ATOM     15  N   UNL     1      -3.154  -3.920   0.640  0.00  0.00    +0.000 N 
ATOM     16  H   UNL     1      -3.871  -3.963  -0.072  0.00  0.00    +0.000 HD
ATOM     17  H   UNL     1      -3.016  -4.695   1.275  0.00  0.00    +0.000 HD
ENDBRANCH  13  15
ENDBRANCH   4   6
BRANCH   2  18
ATOM     18  O   UNL     1      -2.204   3.892  -1.020  0.00  0.00    +0.000 OA
ATOM     19  H   UNL     1      -2.854   3.685  -1.712  0.00  0.00    +0.000 HD
ENDBRANCH   2  18
BRANCH   3  20
ATOM     20  O   UNL     1      -1.004   4.222   1.406  0.00  0.00    +0.000 OA
ATOM     21  H   UNL     1      -0.279   4.276   2.051  0.00  0.00    +0.000 HD
ENDBRANCH   3  20
BRANCH   5  22
ATOM     22  C   UNL     1       1.451   2.235   1.010  0.00  0.00    +0.000 C 
BRANCH  22  23
ATOM     23  O   UNL     1       2.594   1.983   0.211  0.00  0.00    +0.000 OA
BRANCH  23  24
ATOM     24  P   UNL     1       3.258   0.508   0.256  0.00  0.00    +0.000 P 
ATOM     25  O   UNL     1       3.748   0.049   1.599  0.00  0.00    +0.000 OA
BRANCH  24  26
ATOM     26  O   UNL     1       4.412   0.586  -0.878  0.00  0.00    +0.000 OA
ATOM     27  H   UNL     1       5.258   1.032  -0.662  0.00  0.00    +0.000 HD
ENDBRANCH  24  26
BRANCH  24  28
ATOM     28  O   UNL     1       2.150  -0.443  -0.447  0.00  0.00    +0.000 OA
BRANCH  28  29
ATOM     29  S   UNL     1       2.647  -1.972  -0.731  0.00  0.00    +0.000 S 
ATOM     30  O   UNL     1       3.005  -2.592   0.531  0.00  0.00    +0.000 OA
ATOM     31  O   UNL     1       3.587  -1.951  -1.837  0.00  0.00    +0.000 OA
BRANCH  29  32
ATOM     32  O   UNL     1       1.286  -2.695  -1.262  0.00  0.00    +0.000 OA
ATOM     33  H   UNL     1       0.769  -2.184  -1.928  0.00  0.00    +0.000 HD
ENDBRANCH  29  32
ENDBRANCH  28  29
ENDBRANCH  24  28
ENDBRANCH  23  24
ENDBRANCH  22  23
ENDBRANCH   5  22
TORSDOF 11
