REMARK  Name = 10177
REMARK  2 active torsions:
REMARK  status: ('A' for Active; 'I' for Inactive)
REMARK    1  A    between atoms: O_1  and  C_9
REMARK    2  A    between atoms: C_5  and  C_7
REMARK                            x       y       z     vdW  Elec       q    Type
REMARK                         _______ _______ _______ _____ _____    ______ ____
ROOT
ATOM      1  N   UNL     1       2.890  -1.660   0.316  0.00  0.00    +0.000 N 
ATOM      2  C   UNL     1       0.990  -0.529   0.118  0.00  0.00    +0.000 A 
ATOM      3  C   UNL     1       2.070   0.384  -0.042  0.00  0.00    +0.000 A 
ATOM      4  C   UNL     1       3.250  -0.351   0.087  0.00  0.00    +0.000 A 
ATOM      5  C   UNL     1       1.526  -1.777   0.336  0.00  0.00    +0.000 A 
ATOM      6  C   UNL     1       2.157   1.769  -0.284  0.00  0.00    +0.000 A 
ATOM      7  C   UNL     1       4.518   0.232  -0.015  0.00  0.00    +0.000 A 
ATOM      8  C   UNL     1       3.419   2.366  -0.388  0.00  0.00    +0.000 A 
ATOM      9  C   UNL     1       4.580   1.607  -0.255  0.00  0.00    +0.000 A 
ATOM     10  H   UNL     1       3.538  -2.424   0.450  0.00  0.00    +0.000 HD
ENDROOT
BRANCH   2  13
ATOM     11  O   UNL     1      -1.471  -2.286  -0.798  0.00  0.00    +0.000 OA
ATOM     12  N   UNL     1      -0.912   0.918   0.426  0.00  0.00    +0.000 NA
ATOM     13  C   UNL     1      -0.433  -0.243   0.067  0.00  0.00    +0.000 C 
ATOM     14  C   UNL     1      -2.765  -0.363  -0.212  0.00  0.00    +0.000 A 
ATOM     15  C   UNL     1      -1.565  -1.161  -0.380  0.00  0.00    +0.000 C 
ATOM     16  C   UNL     1      -2.311   0.861   0.267  0.00  0.00    +0.000 A 
ATOM     17  C   UNL     1      -4.092  -0.652  -0.447  0.00  0.00    +0.000 A 
ATOM     18  C   UNL     1      -3.221   1.869   0.534  0.00  0.00    +0.000 A 
ATOM     19  C   UNL     1      -5.010   0.363  -0.178  0.00  0.00    +0.000 A 
ATOM     20  C   UNL     1      -4.579   1.612   0.308  0.00  0.00    +0.000 A 
ENDBRANCH   2  13
BRANCH   5  21
ATOM     21  O   UNL     1       0.961  -2.958   0.541  0.00  0.00    +0.000 OA
ATOM     22  H   UNL     1      -0.001  -2.830   0.596  0.00  0.00    +0.000 HD
ENDBRANCH   5  21
TORSDOF 2
