REMARK  Name = 145925915
REMARK  5 active torsions:
REMARK  status: ('A' for Active; 'I' for Inactive)
REMARK    1  A    between atoms: O_2  and  C_16
REMARK    2  A    between atoms: O_3  and  C_21
REMARK    3  A    between atoms: N_6  and  C_11
REMARK    4  A    between atoms: N_7  and  C_15
REMARK    5  A    between atoms: C_10  and  C_21
REMARK                            x       y       z     vdW  Elec       q    Type
REMARK                         _______ _______ _______ _____ _____    ______ ____
ROOT
ATOM      1  C   UNL     1      -3.873  -0.361  -0.040  0.00  0.00    +0.000 A 
ATOM      2  C   UNL     1      -1.558   0.273   0.230  0.00  0.00    +0.000 A 
ATOM      3  C   UNL     1      -2.521  -0.703  -0.022  0.00  0.00    +0.000 A 
ATOM      4  C   UNL     1      -4.261   0.958   0.195  0.00  0.00    +0.000 A 
ATOM      5  C   UNL     1      -1.946   1.593   0.464  0.00  0.00    +0.000 A 
ATOM      6  C   UNL     1      -3.298   1.935   0.446  0.00  0.00    +0.000 A 
ENDROOT
BRANCH   4   7
ATOM      7  O   UNL     1      -5.577   1.313   0.179  0.00  0.00    +0.000 OA
ATOM      8  H   UNL     1      -5.652   2.266   0.361  0.00  0.00    +0.000 HD
ENDBRANCH   4   7
BRANCH   1  10
ATOM      9  O   UNL     1      -6.017  -1.409   0.134  0.00  0.00    +0.000 OA
ATOM     10  C   UNL     1      -4.863  -1.395  -0.305  0.00  0.00    +0.000 C 
BRANCH  10  11
ATOM     11  O   UNL     1      -4.381  -2.380  -1.111  0.00  0.00    +0.000 OA
ATOM     12  H   UNL     1      -5.054  -3.072  -1.284  0.00  0.00    +0.000 HD
ENDBRANCH  10  11
ENDBRANCH   1  10
BRANCH   2  13
ATOM     13  N   UNL     1      -0.195  -0.071   0.247  0.00  0.00    +0.000 NA
ATOM     14  N   UNL     1       0.540   0.895  -0.120  0.00  0.00    +0.000 NA
BRANCH  14  21
ATOM     15  S   UNL     1       2.888   1.336  -1.225  0.00  0.00    +0.000 S 
ATOM     16  N   UNL     1       2.414  -0.310   0.704  0.00  0.00    +0.000 NA
ATOM     17  C   UNL     1       4.222   0.442  -0.598  0.00  0.00    +0.000 A 
ATOM     18  C   UNL     1       3.772  -0.389   0.432  0.00  0.00    +0.000 A 
ATOM     19  C   UNL     1       5.571   0.474  -0.989  0.00  0.00    +0.000 A 
ATOM     20  C   UNL     1       4.706  -1.217   1.093  0.00  0.00    +0.000 A 
ATOM     21  C   UNL     1       1.855   0.562  -0.103  0.00  0.00    +0.000 A 
ATOM     22  C   UNL     1       6.474  -0.355  -0.320  0.00  0.00    +0.000 A 
ATOM     23  C   UNL     1       6.050  -1.190   0.708  0.00  0.00    +0.000 A 
ENDBRANCH  14  21
ENDBRANCH   2  13
TORSDOF 5
