REMARK  Name = 57697
REMARK  2 active torsions:
REMARK  status: ('A' for Active; 'I' for Inactive)
REMARK    1  A    between atoms: C_9  and  C_16
REMARK    2  A    between atoms: C_11  and  C_17
REMARK                            x       y       z     vdW  Elec       q    Type
REMARK                         _______ _______ _______ _____ _____    ______ ____
ROOT
ATOM      1  O   UNL     1      -0.700  -2.084  -0.043  0.00  0.00    +0.000 OA
ATOM      2  N   UNL     1       1.195  -0.712   0.002  0.00  0.00    +0.000 N 
ATOM      3  N   UNL     1       0.927   1.653  -0.014  0.00  0.00    +0.000 NA
ATOM      4  C   UNL     1       1.691   0.602  -0.003  0.00  0.00    +0.000 A 
ATOM      5  C   UNL     1       3.189   0.772   0.003  0.00  0.00    +0.000 A 
ATOM      6  C   UNL     1      -0.184  -0.966  -0.013  0.00  0.00    +0.000 A 
ATOM      7  C   UNL     1      -1.048   0.258  -0.005  0.00  0.00    +0.000 A 
ATOM      8  C   UNL     1       2.067  -1.795   0.011  0.00  0.00    +0.000 A 
ATOM      9  C   UNL     1       3.962  -0.324   0.014  0.00  0.00    +0.000 A 
ATOM     10  C   UNL     1      -0.421   1.444  -0.012  0.00  0.00    +0.000 A 
ATOM     11  C   UNL     1       3.394  -1.641   0.018  0.00  0.00    +0.000 A 
ATOM     12  C   UNL     1       3.747   2.161  -0.001  0.00  0.00    +0.000 C 
ENDROOT
BRANCH   7  17
ATOM     13  N   UNL     1      -3.164  -1.022   0.010  0.00  0.00    +0.000 NA
ATOM     14  N   UNL     1      -3.254   1.241   0.004  0.00  0.00    +0.000 NA
ATOM     15  N   UNL     1      -4.409  -0.524   0.015  0.00  0.00    +0.000 N 
ATOM     16  N   UNL     1      -4.510   0.812   0.012  0.00  0.00    +0.000 NA
ATOM     17  C   UNL     1      -2.480   0.122   0.003  0.00  0.00    +0.000 A 
ATOM     18  H   UNL     1      -5.227  -1.124   0.021  0.00  0.00    +0.000 HD
ENDBRANCH   7  17
TORSDOF 1
