REMARK  Name = 5281295
REMARK  4 active torsions:
REMARK  status: ('A' for Active; 'I' for Inactive)
REMARK    1  A    between atoms: O_3  and  C_14
REMARK    2  A    between atoms: O_4  and  C_18
REMARK    3  A    between atoms: O_5  and  C_20
REMARK    4  A    between atoms: C_10  and  C_11
REMARK                            x       y       z     vdW  Elec       q    Type
REMARK                         _______ _______ _______ _____ _____    ______ ____
ROOT
ATOM      1  O   UNL     1       0.714   0.369  -0.108  0.00  0.00    +0.000 OA
ATOM      2  O   UNL     1       1.801  -2.990   0.162  0.00  0.00    +0.000 OA
ATOM      3  C   UNL     1       2.714  -0.773   0.063  0.00  0.00    +0.000 A 
ATOM      4  C   UNL     1       2.085   0.465  -0.048  0.00  0.00    +0.000 A 
ATOM      5  C   UNL     1       0.427  -0.989  -0.034  0.00  0.00    +0.000 C 
ATOM      6  C   UNL     1       1.670  -1.790   0.079  0.00  0.00    +0.000 C 
ATOM      7  C   UNL     1      -0.802  -1.506  -0.061  0.00  0.00    +0.000 C 
ATOM      8  C   UNL     1       4.084  -0.905   0.139  0.00  0.00    +0.000 A 
ATOM      9  C   UNL     1       2.813   1.635  -0.087  0.00  0.00    +0.000 A 
ATOM     10  C   UNL     1       4.206   1.530  -0.012  0.00  0.00    +0.000 A 
ATOM     11  C   UNL     1       4.835   0.273   0.100  0.00  0.00    +0.000 A 
ENDROOT
BRANCH   7  12
ATOM     12  C   UNL     1      -2.059  -0.742  -0.172  0.00  0.00    +0.000 A 
ATOM     13  C   UNL     1      -2.707  -0.333   0.982  0.00  0.00    +0.000 A 
ATOM     14  C   UNL     1      -2.565  -0.450  -1.427  0.00  0.00    +0.000 A 
ATOM     15  C   UNL     1      -3.895   0.390   0.876  0.00  0.00    +0.000 A 
ATOM     16  C   UNL     1      -3.754   0.272  -1.533  0.00  0.00    +0.000 A 
ATOM     17  C   UNL     1      -4.419   0.692  -0.381  0.00  0.00    +0.000 A 
BRANCH  15  18
ATOM     18  O   UNL     1      -4.537   0.794   2.008  0.00  0.00    +0.000 OA
ATOM     19  H   UNL     1      -5.339   1.279   1.748  0.00  0.00    +0.000 HD
ENDBRANCH  15  18
BRANCH  17  20
ATOM     20  O   UNL     1      -5.578   1.399  -0.496  0.00  0.00    +0.000 OA
ATOM     21  H   UNL     1      -5.786   1.513  -1.440  0.00  0.00    +0.000 HD
ENDBRANCH  17  20
ENDBRANCH   7  12
BRANCH  10  22
ATOM     22  O   UNL     1       4.969   2.659  -0.050  0.00  0.00    +0.000 OA
ATOM     23  H   UNL     1       5.906   2.408   0.012  0.00  0.00    +0.000 HD
ENDBRANCH  10  22
TORSDOF 4
